# vtk DataFile Version 2.0
2D Simulation Python
ASCII
DATASET UNSTRUCTURED_GRID
FIELD FieldData 1
NODES 1 2 int
302 506

POINTS 302 double
0.0 1.0 0.0
1.725 1.0 0.0
8.275 1.0 0.0
10.0 1.0 0.0
10.0 0.0 0.0
0.0 0.0 0.0
0.2156249999996179 1.0 0.0
0.4312499999989985 1.0 0.0
0.6468749999983199 1.0 0.0
0.8624999999976848 1.0 0.0
1.078124999998199 1.0 0.0
1.293749999998842 1.0 0.0
1.509374999999486 1.0 0.0
1.958928571428097 1.0 0.0
2.192857142856231 1.0 0.0
2.426785714284347 1.0 0.0
2.660714285712463 1.0 0.0
2.894642857140244 1.0 0.0
3.128571428568223 1.0 0.0
3.362499999996202 1.0 0.0
3.596428571424181 1.0 0.0
3.830357142852173 1.0 0.0
4.064285714279904 1.0 0.0
4.298214285708095 1.0 0.0
4.532142857136261 1.0 0.0
4.766071428564377 1.0 0.0
4.999999999992493 1.0 0.0
5.233928571421576 1.0 0.0
5.467857142850659 1.0 0.0
5.701785714279742 1.0 0.0
5.935714285709171 1.0 0.0
6.169642857138601 1.0 0.0
6.40357142856803 1.0 0.0
6.637499999997461 1.0 0.0
6.871428571426742 1.0 0.0
7.105357142855627 1.0 0.0
7.339285714284363 1.0 0.0
7.573214285713098 1.0 0.0
7.807142857141836 1.0 0.0
8.041071428570719 1.0 0.0
8.490624999997745 1.0 0.0
8.706249999995837 1.0 0.0
8.921874999995316 1.0 0.0
9.137499999994796 1.0 0.0
9.35312499999497 1.0 0.0
9.56874999999653 1.0 0.0
9.784374999998093 1.0 0.0
10.0 0.7999999999999999 0.0
10.0 0.6000000000013879 0.0
10.0 0.4000000000016652 0.0
10.0 0.2000000000008323 0.0
9.761904761904761 0.0 0.0
9.523809523809524 0.0 0.0
9.285714285714285 0.0 0.0
9.047619047619046 0.0 0.0
8.809523809523807 0.0 0.0
8.57142857142857 0.0 0.0
8.33333333333333 0.0 0.0
8.095238095238091 0.0 0.0
7.857142857142854 0.0 0.0
7.619047619047615 0.0 0.0
7.380952380952378 0.0 0.0
7.14285714285714 0.0 0.0
6.904761904761902 0.0 0.0
6.666666666666664 0.0 0.0
6.428571428571425 0.0 0.0
6.190476190476188 0.0 0.0
5.95238095238095 0.0 0.0
5.714285714285712 0.0 0.0
5.476190476190473 0.0 0.0
5.238095238095235 0.0 0.0
4.999999999999998 0.0 0.0
4.761904761904759 0.0 0.0
4.523809523809522 0.0 0.0
4.285714285714284 0.0 0.0
4.047619047619046 0.0 0.0
3.809523809523807 0.0 0.0
3.571428571428569 0.0 0.0
3.333333333333331 0.0 0.0
3.095238095238094 0.0 0.0
2.857142857142856 0.0 0.0
2.619047619047618 0.0 0.0
2.38095238095238 0.0 0.0
2.142857142857141 0.0 0.0
1.904761904761905 0.0 0.0
1.666666666666664 0.0 0.0
1.428571428571429 0.0 0.0
1.19047619047619 0.0 0.0
0.9523809523809508 0.0 0.0
0.7142857142857135 0.0 0.0
0.4761904761904763 0.0 0.0
0.238095238095239 0.0 0.0
0.0 0.1999999999995576 0.0
0.0 0.3999999999989743 0.0
0.0 0.5999999999989463 0.0
0.0 0.7999999999994735 0.0
9.530990225378858 0.48153477932849514 0.0
0.46807728536230486 0.48255619718540266 0.0
8.377734334926362 0.4967412011001022 0.0
1.6482443765186505 0.5102044727009569 0.0
8.978852802149413 0.5117627527207624 0.0
1.0158194781493275 0.5177341481054774 0.0
4.882398483875832 0.5557182921196082 0.0
5.559801466310931 0.49693616406790836 0.0
4.2067783155117535 0.496859108763015 0.0
6.277229181065244 0.4930310779755044 0.0
3.508527990698574 0.49092422333055347 0.0
6.969128351679322 0.49205160874722653 0.0
2.8100106315011653 0.4412498917651447 0.0
7.707460439697875 0.42934061948778507 0.0
2.1484563229321707 0.5190263087170722 0.0
8.05993968550643 0.3301422503996892 0.0
5.212626806763606 0.6471915594018316 0.0
4.552823246161871 0.6471743500813549 0.0
5.9241517867598565 0.63224546171981 0.0
3.846979028715798 0.6318409970529975 0.0
7.357824170283837 0.332299712612786 0.0
6.640838835312301 0.633012153289296 0.0
3.136881238748129 0.6261830064548924 0.0
8.67847312443684 0.653373125538726 0.0
1.3117775437450638 0.6706628499190972 0.0
2.474859324051379 0.32081513617807744 0.0
8.655792856966107 0.320790197905865 0.0
1.317707011078075 0.33516460646049406 0.0
0.7441046149141695 0.6749811953446372 0.0
9.253634860573346 0.672660787787204 0.0
9.731054668782406 0.6993400179945781 0.0
9.695405542806373 0.35735505572021975 0.0
0.30412811207334434 0.3578689266488173 0.0
0.26857611489325317 0.6997322590334971 0.0
8.062164391953592 0.69372408190543 0.0
2.48061776427458 0.661855135020865 0.0
3.1812092801955316 0.2438560805597325 0.0
6.650077130172233 0.2908025159180769 0.0
3.8505395191811567 0.2805488281772663 0.0
5.920148028134407 0.2805229584465423 0.0
7.316344059348394 0.7188450130389262 0.0
4.5818199013867265 0.2964703538008929 0.0
5.1820919711535725 0.2964810784542199 0.0
1.873271192507828 0.7666739461593355 0.0
9.296793018742367 0.2943157909745248 0.0
0.701455197946526 0.29635536959309566 0.0
1.8989999524266081 0.3298838275932405 0.0
2.9423890972957336 0.24221509966396487 0.0
6.869408296640442 0.30339115147183066 0.0
8.378994831856703 0.8343071803039741 0.0
3.6417347930094883 0.26803277818902554 0.0
6.13802714902403 0.2673729336616573 0.0
4.349250145129598 0.27371901084440575 0.0
5.41513422540228 0.27374275205536563 0.0
7.526913524627845 0.766566068926869 0.0
1.08610847992726 0.25986842655505266 0.0
8.908634225048774 0.2530849797769877 0.0
7.861146101946973 0.759171440406507 0.0
9.043846445513278 0.7540082854878177 0.0
0.9522934950765052 0.7576976309063548 0.0
1.5315669526097078 0.7232510353608865 0.0
8.29576004308746 0.29023990635128794 0.0
9.485012649190182 0.7314079503256706 0.0
0.5141342442246788 0.7323061104910118 0.0
2.2729594696355795 0.7108624214196726 0.0
7.722287954637138 0.20560945432100353 0.0
4.882772685870154 0.7866235871213408 0.0
5.573788173759868 0.7697624394402156 0.0
4.19294727613512 0.7696925690709518 0.0
7.115763007841749 0.278289881289133 0.0
1.5444796152647253 0.25873067066130895 0.0
6.283198920085886 0.7669300930073022 0.0
3.4908840953161593 0.7656310942974799 0.0
7.037932926290471 0.7540111886966883 0.0
2.7927872693525697 0.8183302107359318 0.0
4.881743831770498 0.26624810132525323 0.0
2.255829321270927 0.2559422192692927 0.0
2.6815398021069043 0.2329505528719946 0.0
9.48479714709138 0.27572760761294923 0.0
0.5143126296481133 0.27673406948367246 0.0
9.833734033515812 0.5195508808549616 0.0
0.16601967000588524 0.5198169461879496 0.0
7.488097553437818 0.1715022684340558 0.0
3.417616160018022 0.2412242104707999 0.0
6.39936509250359 0.23486885322955225 0.0
4.0873871743147125 0.23386943578838226 0.0
5.678427512567489 0.23390009911605758 0.0
5.333716373645815 0.8123647143291459 0.0
4.43228306351993 0.8123435089446568 0.0
5.116439247252084 0.8173607340047834 0.0
6.0403944647714765 0.8062922348390061 0.0
4.649284516718914 0.8173539211626807 0.0
3.729711783590326 0.8058230848128677 0.0
5.818786383283754 0.806785191409242 0.0
6.757908318660008 0.8038587549059353 0.0
3.949294147636488 0.8066006346312146 0.0
3.0188607178215188 0.813236453118048 0.0
6.5290929375108675 0.8058897326805613 0.0
3.244625589756405 0.8052720314475307 0.0
2.3695996103505172 0.48882084016993244 0.0
8.504667298261753 0.186859354035644 0.0
8.588619427249888 0.8272813583911827 0.0
8.79902262099706 0.8128235261962539 0.0
1.1900810942373703 0.8203720023882699 0.0
2.0568482191995194 0.7555266584409617 0.0
8.775226699562056 0.47942305022876913 0.0
1.216160693017211 0.48870340923069355 0.0
9.334507930922278 0.48534685835979985 0.0
0.6636032060289548 0.4874339611024357 0.0
1.8946441564554235 0.5365764590223564 0.0
7.918053339637738 0.5269071215725591 0.0
3.042601596599878 0.43794031434352476 0.0
6.747979278406762 0.4680129073163955 0.0
3.745593741304013 0.45968471459695187 0.0
6.029763006381357 0.4601723651761453 0.0
7.481572831421537 0.5345389790108663 0.0
4.456631820538487 0.4728063897944021 0.0
5.308520388222097 0.47283418955219997 0.0
7.959457919021005 0.17111479601597565 0.0
2.0066104772611073 0.19049231586408263 0.0
8.574543613422172 0.4952483633052261 0.0
1.428321023581924 0.4977837286129008 0.0
8.164240570647927 0.5016513333046331 0.0
7.297089830795485 0.15642198387509706 0.0
3.269479998986233 0.44445894327439595 0.0
1.367309689919423 0.8428555237594114 0.0
6.527829010253905 0.4585492233929536 0.0
3.961459549711496 0.45584882932172793 0.0
2.4824412521738366 0.16194795568987258 0.0
5.808190414995788 0.45603654209685013 0.0
7.213076561589415 0.518346753016247 0.0
4.680837482978803 0.4827389270220365 0.0
5.08382674590485 0.4827482855123105 0.0
0.8262264261817112 0.18197659795257168 0.0
9.171917516663758 0.17970080785542902 0.0
2.584925185739327 0.46435761785659524 0.0
7.693288779047581 0.8334842580832518 0.0
0.1530438023592377 0.8410792578598901 0.0
9.846825292783183 0.8409405953123933 0.0
8.169542489671208 0.8432341952287923 0.0
1.7220121647260629 0.8615977826872976 0.0
9.831485118650741 0.1748843271796442 0.0
0.16835848705538872 0.17505707421862682 0.0
1.7963390429020614 0.19072290323761162 0.0
0.3165271887579673 0.8546224410189863 0.0
9.683202790691091 0.8543376316796354 0.0
9.659479562709686 0.16159330199292352 0.0
0.3402185846269278 0.1619307257941079 0.0
2.573877927431385 0.8267504162747129 0.0
1.137227734067096 0.651029917965371 0.0
8.855081679332947 0.6422781400343744 0.0
8.690007765319193 0.15214703866893114 0.0
1.313468171653628 0.17075113760186666 0.0
2.91567919781854 0.6295682577494474 0.0
6.830735648370428 0.6301999470192677 0.0
7.988209531349697 0.8592271171347007 0.0
3.6643366004072684 0.6307992896997896 0.0
8.478362788340274 0.6631828010838738 0.0
6.110930664984687 0.6317467856493351 0.0
4.368291398971854 0.6397894493800707 0.0
7.39906173753222 0.8708333446977921 0.0
5.397683112989879 0.6398298252248341 0.0
0.7439833793937171 0.8329948124538945 0.0
9.254622565508013 0.8316152764447868 0.0
5.2858086402392255 0.14225080529119583 0.0
4.477175927239029 0.14224403660268142 0.0
6.01125802631703 0.1355865677630897 0.0
3.7567155587708188 0.135732328803486 0.0
6.772557254836968 0.14566203008622872 0.0
3.0818603705994354 0.09722022747608985 0.0
7.23958826016724 0.8687412199394537 0.0
7.55143467481687 0.3346632907099825 0.0
1.73394334708375 0.6796612743312939 0.0
2.0409009930186177 0.36638902690651776 0.0
5.117545716727809 0.1410016589297527 0.0
9.140147783619538 0.3808561064904599 0.0
0.8566206459118719 0.3846393008122503 0.0
4.645289752245261 0.14099857020322124 0.0
7.8734297644180815 0.33262614105700705 0.0
0.6464960893635381 0.1510111506204829 0.0
9.352605108150568 0.1499487092088546 0.0
8.271834695029535 0.6721414272498201 0.0
8.481695420245 0.35797656292031654 0.0
3.330075057569324 0.6265127095293493 0.0
6.451617122373691 0.6314944399499908 0.0
9.882322183069064 0.6919662329967049 0.0
0.11752907995062079 0.6921248512084649 0.0
9.872124244179474 0.33035797750888796 0.0
0.12770256770304084 0.33054762138120997 0.0
9.655237786504783 0.5578375543213526 0.0
4.031490139391722 0.6321849430388953 0.0
1.7565361500041443 0.3652247804484481 0.0
0.3441901387240022 0.5584536557548013 0.0
5.736931589889106 0.6323655051685909 0.0
0.8464919019070962 0.5644925888360321 0.0
9.150195402772212 0.5609267120721962 0.0
4.729621005831004 0.6579346353441275 0.0
5.855293853259527 0.13000754721281887 0.0
5.035608561101466 0.6579406475576468 0.0
2.389415154669456 0.8399002177968068 0.0
3.910356217338347 0.1300379185532636 0.0
6.961058885254832 0.14547353417469475 0.0
8.14874180046685 0.15830055870394974 0.0
7.69806087327075 0.6416721174407037 0.0
6.583437266141684 0.13427211787716165 0.0
2.6929753003868346 0.6403669972227097 0.0

CELLS 506 2024
3 203 96 174
3 204 175 97
3 140 203 174
3 141 175 204
3 136 226 169
3 13 139 236
3 110 205 200
3 97 159 204
3 96 203 158
3 78 265 132
3 107 169 226
3 124 204 159
3 125 158 203
3 138 171 228
3 102 228 171
3 1 13 236
3 78 132 179
3 137 227 171
3 102 171 227
3 106 179 220
3 105 222 180
3 96 127 174
3 97 175 128
3 82 172 224
3 80 173 143
3 104 181 223
3 103 225 182
3 42 43 154
3 9 10 155
3 132 220 179
3 110 200 160
3 133 180 222
3 110 195 172
3 82 83 172
3 139 200 205
3 121 172 195
3 134 223 181
3 43 259 154
3 9 155 258
3 135 182 225
3 106 146 179
3 96 285 127
3 97 128 288
3 99 166 217
3 105 180 147
3 13 200 139
3 107 165 144
3 108 143 173
3 86 248 166
3 123 217 166
3 80 81 173
3 104 148 181
3 44 45 158
3 7 8 159
3 121 224 172
3 103 182 149
3 2 40 145
3 138 228 213
3 137 212 227
3 135 225 210
3 134 209 223
3 85 86 166
3 99 268 205
3 136 211 226
3 133 222 208
3 132 207 220
3 123 166 248
3 44 158 259
3 8 258 159
3 54 55 152
3 87 88 151
3 99 205 287
3 120 156 217
3 132 143 207
3 133 208 144
3 134 146 209
3 96 158 285
3 99 217 156
3 69 149 182
3 97 288 159
3 130 218 206
3 135 210 147
3 78 79 265
3 137 148 212
3 138 213 149
3 80 143 265
3 74 181 148
3 125 154 259
3 124 258 155
3 136 150 211
3 144 297 264
3 126 285 158
3 129 159 288
3 297 63 264
3 112 213 228
3 66 147 180
3 113 227 212
3 100 152 201
3 101 202 151
3 59 60 161
3 114 210 225
3 77 179 146
3 116 226 211
3 115 223 209
3 25 26 162
3 28 29 163
3 22 23 164
3 117 208 222
3 77 146 263
3 122 201 152
3 123 151 202
3 31 32 167
3 19 20 168
3 118 220 207
3 34 35 169
3 16 17 170
3 130 206 153
3 12 236 156
3 66 262 147
3 71 72 171
3 108 173 231
3 74 148 261
3 111 206 218
3 125 259 158
3 124 159 258
3 79 80 265
3 40 197 145
3 136 169 266
3 69 260 149
3 98 157 218
3 37 150 256
3 27 183 185
3 24 187 184
3 30 186 189
3 21 191 188
3 33 190 193
3 18 194 192
3 63 64 264
3 132 265 143
3 111 218 157
3 14 160 200
3 138 270 171
3 133 144 264
3 127 285 176
3 128 177 288
3 38 251 153
3 68 69 182
3 57 157 196
3 1 236 12
3 134 263 146
3 123 248 151
3 122 152 247
3 60 178 161
3 121 231 173
3 74 75 181
3 135 147 262
3 76 77 263
3 42 154 198
3 10 199 155
3 48 49 176
3 137 261 148
3 93 94 177
3 108 207 143
3 87 151 248
3 55 247 152
3 107 144 208
3 59 161 214
3 138 149 260
3 137 171 273
3 107 226 165
3 116 165 226
3 106 209 146
3 66 67 262
3 65 66 180
3 105 147 210
3 136 256 150
3 125 291 154
3 124 155 290
3 104 212 148
3 103 149 213
3 3 47 234
3 0 233 95
3 77 78 179
3 12 156 221
3 2 145 235
3 112 185 183
3 113 184 187
3 114 189 186
3 115 188 191
3 117 193 190
3 118 192 194
3 130 153 251
3 100 154 291
3 101 290 155
3 101 151 272
3 100 271 152
3 37 232 150
3 0 6 233
3 3 234 46
3 54 152 230
3 88 229 151
3 16 170 244
3 26 185 162
3 25 162 187
3 28 163 183
3 23 184 164
3 29 189 163
3 22 164 191
3 73 74 261
3 131 195 160
3 31 167 186
3 110 160 195
3 20 188 168
3 32 193 167
3 19 168 194
3 34 169 190
3 204 290 272
3 203 271 291
3 17 192 170
3 139 205 268
3 38 153 232
3 69 70 260
3 4 237 50
3 5 92 238
3 13 14 200
3 98 278 157
3 57 298 157
3 4 51 237
3 5 238 91
3 14 295 160
3 36 37 256
3 144 165 297
3 120 221 156
3 141 204 272
3 140 271 203
3 60 61 178
3 45 241 158
3 7 159 240
3 126 158 241
3 129 240 159
3 62 165 219
3 99 287 166
3 84 239 215
3 56 57 196
3 2 235 39
3 111 157 298
3 99 156 268
3 109 274 161
3 62 297 165
3 38 39 251
3 53 54 230
3 88 89 229
3 26 27 185
3 27 28 183
3 24 25 187
3 23 24 184
3 29 30 189
3 30 31 186
3 21 22 191
3 20 21 188
3 32 33 193
3 33 34 190
3 18 19 194
3 17 18 192
3 100 246 154
3 101 155 245
3 109 161 267
3 83 215 172
3 116 219 165
3 131 160 295
3 142 215 239
3 35 266 169
3 72 273 171
3 52 276 174
3 90 175 275
3 72 73 273
3 70 71 270
3 71 171 270
3 102 162 294
3 102 292 162
3 170 301 244
3 35 36 266
3 103 257 163
3 103 163 289
3 41 42 198
3 10 11 199
3 104 164 255
3 104 286 164
3 53 230 276
3 89 275 229
3 105 254 167
3 105 167 280
3 106 168 252
3 106 279 168
3 110 172 269
3 107 250 169
3 70 270 260
3 49 283 176
3 73 261 273
3 93 177 284
3 142 287 205
3 36 256 266
3 85 166 239
3 131 231 195
3 121 195 231
3 153 206 299
3 52 53 276
3 89 90 275
3 109 299 206
3 40 41 197
3 98 277 253
3 39 235 251
3 121 173 224
3 57 58 298
3 81 224 173
3 14 15 295
3 48 176 281
3 61 219 178
3 145 253 277
3 94 282 177
3 11 12 221
3 127 176 283
3 128 284 177
3 61 62 219
3 116 178 219
3 127 242 174
3 128 175 243
3 62 63 297
3 161 274 214
3 150 299 211
3 41 198 197
3 109 211 299
3 83 84 215
3 119 201 216
3 120 217 202
3 116 267 178
3 58 59 214
3 84 85 239
3 119 197 198
3 108 301 249
3 126 281 176
3 129 177 282
3 122 216 201
3 123 202 217
3 170 249 301
3 52 174 242
3 90 243 175
3 140 174 276
3 141 275 175
3 81 82 224
3 37 38 232
3 145 197 253
3 6 7 240
3 45 46 241
3 131 244 301
3 161 178 267
3 64 65 300
3 116 211 267
3 75 76 296
3 67 68 293
3 118 249 192
3 117 190 250
3 51 52 242
3 90 91 243
3 115 252 188
3 114 186 254
3 113 255 184
3 112 183 257
3 111 298 214
3 157 278 196
3 120 199 221
3 118 194 279
3 117 280 193
3 115 191 286
3 15 16 244
3 114 289 189
3 112 294 185
3 55 56 247
3 86 87 248
3 113 187 292
3 122 247 196
3 109 206 274
3 11 221 199
3 141 229 275
3 140 276 230
3 47 48 281
3 94 95 282
3 8 9 258
3 43 44 259
3 126 176 285
3 56 196 247
3 129 288 177
3 118 207 249
3 117 250 208
3 154 246 198
3 155 199 245
3 115 209 252
3 114 254 210
3 113 212 255
3 119 198 246
3 120 245 199
3 112 257 213
3 142 205 269
3 111 214 274
3 98 253 216
3 110 269 205
3 49 50 283
3 92 93 284
3 101 272 290
3 100 291 271
3 130 251 235
3 100 201 246
3 101 245 202
3 118 279 220
3 117 222 280
3 115 286 223
3 114 225 289
3 113 292 227
3 112 228 294
3 119 253 197
3 170 192 249
3 169 250 190
3 168 188 252
3 167 254 186
3 164 184 255
3 163 257 183
3 138 260 270
3 122 196 278
3 136 266 256
3 135 293 182
3 134 181 296
3 133 300 180
3 68 182 293
3 75 296 181
3 65 180 300
3 137 273 261
3 120 202 245
3 119 246 201
3 145 277 235
3 130 235 277
3 108 249 207
3 107 208 250
3 106 252 209
3 103 213 257
3 105 210 254
3 104 255 212
3 168 279 194
3 167 193 280
3 6 240 233
3 46 234 241
3 164 286 191
3 163 189 289
3 162 292 187
3 162 185 294
3 151 229 272
3 152 271 230
3 128 243 238
3 127 237 242
3 102 227 292
3 102 294 228
3 103 289 225
3 104 223 286
3 105 280 222
3 106 220 279
3 172 215 269
3 122 278 216
3 119 216 253
3 109 267 211
3 166 287 239
3 125 203 291
3 124 290 204
3 142 239 287
3 51 242 237
3 91 238 243
3 111 274 206
3 64 300 264
3 142 269 215
3 129 233 240
3 126 241 234
3 47 281 234
3 95 233 282
3 76 263 296
3 131 295 244
3 67 293 262
3 130 277 218
3 98 218 277
3 98 216 278
3 58 214 298
3 140 230 271
3 141 272 229
3 108 231 301
3 156 236 268
3 50 237 283
3 92 284 238
3 153 299 232
3 150 232 299
3 131 301 231
3 129 282 233
3 126 234 281
3 139 268 236
3 127 283 237
3 128 238 284
3 15 244 295
3 135 262 293
3 134 296 263
3 133 264 300

CELL_TYPES 506
5 
5 
5 
5 
5 
5 
5 
5 
5 
5 
5 
5 
5 
5 
5 
5 
5 
5 
5 
5 
5 
5 
5 
5 
5 
5 
5 
5 
5 
5 
5 
5 
5 
5 
5 
5 
5 
5 
5 
5 
5 
5 
5 
5 
5 
5 
5 
5 
5 
5 
5 
5 
5 
5 
5 
5 
5 
5 
5 
5 
5 
5 
5 
5 
5 
5 
5 
5 
5 
5 
5 
5 
5 
5 
5 
5 
5 
5 
5 
5 
5 
5 
5 
5 
5 
5 
5 
5 
5 
5 
5 
5 
5 
5 
5 
5 
5 
5 
5 
5 
5 
5 
5 
5 
5 
5 
5 
5 
5 
5 
5 
5 
5 
5 
5 
5 
5 
5 
5 
5 
5 
5 
5 
5 
5 
5 
5 
5 
5 
5 
5 
5 
5 
5 
5 
5 
5 
5 
5 
5 
5 
5 
5 
5 
5 
5 
5 
5 
5 
5 
5 
5 
5 
5 
5 
5 
5 
5 
5 
5 
5 
5 
5 
5 
5 
5 
5 
5 
5 
5 
5 
5 
5 
5 
5 
5 
5 
5 
5 
5 
5 
5 
5 
5 
5 
5 
5 
5 
5 
5 
5 
5 
5 
5 
5 
5 
5 
5 
5 
5 
5 
5 
5 
5 
5 
5 
5 
5 
5 
5 
5 
5 
5 
5 
5 
5 
5 
5 
5 
5 
5 
5 
5 
5 
5 
5 
5 
5 
5 
5 
5 
5 
5 
5 
5 
5 
5 
5 
5 
5 
5 
5 
5 
5 
5 
5 
5 
5 
5 
5 
5 
5 
5 
5 
5 
5 
5 
5 
5 
5 
5 
5 
5 
5 
5 
5 
5 
5 
5 
5 
5 
5 
5 
5 
5 
5 
5 
5 
5 
5 
5 
5 
5 
5 
5 
5 
5 
5 
5 
5 
5 
5 
5 
5 
5 
5 
5 
5 
5 
5 
5 
5 
5 
5 
5 
5 
5 
5 
5 
5 
5 
5 
5 
5 
5 
5 
5 
5 
5 
5 
5 
5 
5 
5 
5 
5 
5 
5 
5 
5 
5 
5 
5 
5 
5 
5 
5 
5 
5 
5 
5 
5 
5 
5 
5 
5 
5 
5 
5 
5 
5 
5 
5 
5 
5 
5 
5 
5 
5 
5 
5 
5 
5 
5 
5 
5 
5 
5 
5 
5 
5 
5 
5 
5 
5 
5 
5 
5 
5 
5 
5 
5 
5 
5 
5 
5 
5 
5 
5 
5 
5 
5 
5 
5 
5 
5 
5 
5 
5 
5 
5 
5 
5 
5 
5 
5 
5 
5 
5 
5 
5 
5 
5 
5 
5 
5 
5 
5 
5 
5 
5 
5 
5 
5 
5 
5 
5 
5 
5 
5 
5 
5 
5 
5 
5 
5 
5 
5 
5 
5 
5 
5 
5 
5 
5 
5 
5 
5 
5 
5 
5 
5 
5 
5 
5 
5 
5 
5 
5 
5 
5 
5 
5 
5 
5 
5 
5 
5 
5 
5 
5 
5 
5 
5 
5 
5 
5 
5 
5 
5 
5 
5 
5 
5 
5 
5 
5 
5 
5 
5 
5 
5 
5 
5 
5 
5 
5 
5 
5 
5 
5 
5 
5 
5 
5 
5 

POINT_DATA 302
VECTORS vector double
1.0 0.0 0.0
0.0 0.0 0.0
0.0 0.0 0.0
0.0 0.0 0.0
1.20383986604 0.0 0.0
1.0 0.0 0.0
0.0 0.0 0.0
0.0 0.0 0.0
0.0 0.0 0.0
0.0 0.0 0.0
0.0 0.0 0.0
0.0 0.0 0.0
0.0 0.0 0.0
0.0 0.0 0.0
0.0 0.0 0.0
0.0 0.0 0.0
0.0 0.0 0.0
0.0 0.0 0.0
0.0 0.0 0.0
0.0 0.0 0.0
0.0 0.0 0.0
0.0 0.0 0.0
0.0 0.0 0.0
0.0 0.0 0.0
0.0 0.0 0.0
0.0 0.0 0.0
0.0 0.0 0.0
0.0 0.0 0.0
0.0 0.0 0.0
0.0 0.0 0.0
0.0 0.0 0.0
0.0 0.0 0.0
0.0 0.0 0.0
0.0 0.0 0.0
0.0 0.0 0.0
0.0 0.0 0.0
0.0 0.0 0.0
0.0 0.0 0.0
0.0 0.0 0.0
0.0 0.0 0.0
0.0 0.0 0.0
0.0 0.0 0.0
0.0 0.0 0.0
0.0 0.0 0.0
0.0 0.0 0.0
0.0 0.0 0.0
0.0 0.0 0.0
0.768916449075 0.0742490992027 0.0
1.08976781153 0.0216395126898 0.0
1.19505078964 0.0054821705888 0.0
1.20303488529 -1.98418038313e-05 0.0
1.20353927439 0.0 0.0
1.20328326195 0.0 0.0
1.20192236405 0.0 0.0
1.20373542668 0.0 0.0
1.20523971782 0.0 0.0
1.20986822371 0.0 0.0
1.21547108521 0.0 0.0
1.21509328113 0.0 0.0
1.20969794493 0.0 0.0
1.20287733008 0.0 0.0
1.19518862 0.0 0.0
1.18825987841 0.0 0.0
1.18267149572 0.0 0.0
1.18097371016 0.0 0.0
1.18066380164 0.0 0.0
1.17961919185 0.0 0.0
1.18143322694 0.0 0.0
1.18275068615 0.0 0.0
1.18298421034 0.0 0.0
1.18473732942 0.0 0.0
1.18500669937 0.0 0.0
1.18411951752 0.0 0.0
1.18108097059 0.0 0.0
1.17915695384 0.0 0.0
1.17902094365 0.0 0.0
1.17953744497 0.0 0.0
1.18113774664 0.0 0.0
1.18712044139 0.0 0.0
1.19104321647 0.0 0.0
1.20527953336 0.0 0.0
1.21506006965 0.0 0.0
1.22439138715 0.0 0.0
1.22645953184 0.0 0.0
1.22070340162 0.0 0.0
1.20664139228 0.0 0.0
1.18979560232 0.0 0.0
1.14403058033 0.0 0.0
1.11190006521 0.0 0.0
1.07175042187 0.0 0.0
1.03338381941 0.0 0.0
1.00519395897 0.0 0.0
1.0 0.0 0.0
1.0 0.0 0.0
1.0 0.0 0.0
1.0 0.0 0.0
1.17381541574 -0.00307689096632 0.0
1.07694029661 -0.0796263105504 0.0
1.18582817534 0.0116290185876 0.0
1.17988750442 -0.0308150348435 0.0
1.16176958964 0.0117935541018 0.0
1.16014356496 -0.0856662998352 0.0
1.14094255035 -0.00631056351693 0.0
1.16074678056 -0.000462075126654 0.0
1.15880478234 -0.00489097233274 0.0
1.15982849233 -0.00220125193817 0.0
1.15955058756 0.00200395706248 0.0
1.1632702152 -0.00156992431114 0.0
1.18841697519 0.0180135035169 0.0
1.18937968502 -0.0204551029335 0.0
1.16131833775 -0.00534891521416 0.0
1.21855712496 -0.00335094308245 0.0
1.06176887133 0.00615641537053 0.0
1.06472806031 -0.000954551997106 0.0
1.07530935207 0.00759089451446 0.0
1.0765407786 0.00610538300083 0.0
1.19285168517 -0.00625176419963 0.0
1.06961691897 0.004850480519 0.0
1.08728999773 0.0239997632373 0.0
1.05084328461 0.0256562767419 0.0
1.04707597027 -0.069929991266 0.0
1.20561624322 0.00808195439347 0.0
1.20209343699 0.00859378858956 0.0
1.18050047005 -0.0434500627092 0.0
1.05732607156 -0.0927087617178 0.0
1.02175373575 -0.00641969828194 0.0
0.969045656063 0.0434164222464 0.0
1.19405029375 0.0021375552692 0.0
1.02014417302 -0.035089071912 0.0
1.0179302265 -0.138554229048 0.0
1.00402893291 -0.00418792716271 0.0
1.02737119401 0.0192986413714 0.0
1.18511233273 0.00937439947293 0.0
1.17802171673 -0.000330367459957 0.0
1.17572613438 0.00186250692684 0.0
1.17900786181 0.00226958202752 0.0
0.988924056884 0.00234291273644 0.0
1.17880641489 -0.00263830694275 0.0
1.18386200826 0.00181458924434 0.0
0.819004967105 0.0531253625813 0.0
1.19952521727 -0.00208921270534 0.0
1.08651803048 -0.0496049669206 0.0
1.20743532958 -0.00934344454182 0.0
1.19757024523 0.0117989703061 0.0
1.18131743943 -0.00677113109881 0.0
0.669131681841 0.0158742769078 0.0
1.18313667296 0.00449573196118 0.0
1.18364159464 -0.00121607378397 0.0
1.18369472526 0.000477073759629 0.0
1.1875040074 -0.000387308706786 0.0
0.853119431687 -0.0030605987509 0.0
1.14459056907 -0.0400601115096 0.0
1.20188008839 0.0022787275321 0.0
0.840663456082 -0.0352204417203 0.0
0.891780348614 0.0119244783297 0.0
0.997707417821 -0.071794332558 0.0
0.918019959937 -0.0435488112143 0.0
1.21699371524 0.00391411058005 0.0
0.933833285177 -0.0171025049138 0.0
1.15152728294 -0.0859224959763 0.0
0.906309934057 -0.0173034687172 0.0
1.20596734184 -0.00711523353292 0.0
0.843816793484 -0.00280259673527 0.0
0.88952675451 0.000820343716012 0.0
0.896775444692 -0.00699513404208 0.0
1.1883946573 -0.00747469401961 0.0
1.19338543905 -0.0230348082014 0.0
0.899787571971 -0.00144898839803 0.0
0.901679374459 0.00161443238081 0.0
0.927045192642 -0.0176263425472 0.0
0.743259309204 0.015797899722 0.0
1.18706702627 -0.00250487904231 0.0
1.21471157349 0.00216640940868 0.0
1.20868055018 0.00881948291969 0.0
1.20260538848 -0.00211580813674 0.0
1.04739272595 -0.0430928820154 0.0
1.14525990522 -0.00885989514419 0.0
1.01266105132 -0.0308815677195 0.0
1.19657384071 -0.00609412468406 0.0
1.18530113472 0.00267721914249 0.0
1.1838574928 0.00104562260848 0.0
1.18209695874 -0.00186843661968 0.0
1.18680031794 0.00220367660323 0.0
0.78362739559 0.00852247541792 0.0
0.786068684386 -0.009168940475 0.0
0.768915155666 0.0015855041639 0.0
0.806890787311 0.00520906407712 0.0
0.774579165851 -0.00194905566078 0.0
0.807032593271 -0.000479813073663 0.0
0.799064323449 0.00202804449952 0.0
0.803240122484 0.0039537262098 0.0
0.810074473165 0.00251650617421 0.0
0.777714559061 0.0225312709402 0.0
0.807414895149 0.00209015159748 0.0
0.799594807952 0.0202634290653 0.0
1.18663358585 0.0064583627439 0.0
1.2115920893 0.00498185804262 0.0
0.709385483264 0.026558253434 0.0
0.743696764145 0.0349152590571 0.0
0.794006000757 -0.0584360480788 0.0
0.890619237404 0.0137242285301 0.0
1.17332369967 0.0104816283771 0.0
1.1600096795 -0.0597515371156 0.0
1.1731865427 -0.000524324315892 0.0
1.10161068647 -0.0728607093292 0.0
1.14257408853 -0.012083659157 0.0
1.16982687862 -0.0169813363267 0.0
1.18180876073 0.0201727630983 0.0
1.16417350907 -0.00483193127953 0.0
1.16848812716 0.00843893606506 0.0
1.16698724486 -0.00211818182044 0.0
1.14822402416 -0.0202526711568 0.0
1.16846106499 0.00213126375224 0.0
1.16584463298 -0.000956820023272 0.0
1.21454081981 -0.00467027933016 0.0
1.21865398233 -0.004144417315 0.0
1.17866397437 0.0171209840273 0.0
1.18811619886 -0.0388475857586 0.0
1.18148595201 -0.000488756584895 0.0
1.1915562942 -0.00416809341416 0.0
1.16982852099 0.00720294503316 0.0
0.726935738498 0.0400448328732 0.0
1.17112342824 0.00540478284404 0.0
1.16759650117 -0.00469623883016 0.0
1.21729434096 0.00595158814735 0.0
1.17372922115 0.00887087950726 0.0
1.15654052425 -0.0134484325668 0.0
1.16963383907 -0.00615702842916 0.0
1.17154162926 0.00303494892529 0.0
1.09005645725 -0.0341717634272 0.0
1.20044826811 0.00140720794274 0.0
1.18227287606 0.0090393976935 0.0
0.713310353856 -0.00886253739137 0.0
1.13108148107 -0.112055715112 0.0
0.709938481642 0.00145194971797 0.0
0.636139665158 0.000859532625492 0.0
0.699963412933 -0.0333992969995 0.0
1.20466707554 -0.000760666285823 0.0
1.00554376482 -0.00853353238219 0.0
1.21319202958 -0.0109319550454 0.0
1.16157536569 -0.0561023926677 0.0
0.64727686517 -0.0642777876672 0.0
1.20414371217 -0.000295575118892 0.0
1.01767959227 -0.0160725397309 0.0
0.710674438679 -0.00205022582389 0.0
1.09178477597 -0.0375733014581 0.0
1.07433593779 -0.00446864584954 0.0
1.20774150007 0.00305971165185 0.0
1.16817396355 -0.030389400431 0.0
1.08677953116 0.0212399414303 0.0
1.09418148822 -0.0171024011365 0.0
0.629003276872 -0.0639696029224 0.0
1.09523825972 0.00406405572295 0.0
1.04385275951 0.0174092150102 0.0
1.09176924887 -0.000413230417838 0.0
1.08811309303 -0.00356060296933 0.0
0.654451303009 0.0497971904487 0.0
1.08586515479 0.000879733010297 0.0
0.932750353402 -0.0999173364047 0.0
0.692957826278 0.011908386517 0.0
1.18492728912 -0.000224318857243 0.0
1.18095588867 0.000147914205217 0.0
1.18107700841 0.000146887566427 0.0
1.1799908542 0.00105098521622 0.0
1.18155058372 -0.00119161072389 0.0
1.19480525471 0.00222002011307 0.0
0.618830158892 -0.0600992725641 0.0
1.19601259368 -0.0115939439006 0.0
1.0134413257 0.00737273041084 0.0
1.20859565909 -0.000886784884538 0.0
1.18505784153 0.000869814363412 0.0
1.18951907517 -0.00253603565059 0.0
1.11805550069 -0.0672781408724 0.0
1.1817650822 -0.00282224641352 0.0
1.21307468408 -0.0110059119328 0.0
1.05462505952 -0.0220803274141 0.0
1.2025466249 -0.000911091186924 0.0
1.03738619392 0.00415603786559 0.0
1.20713018492 0.00956390053916 0.0
1.09914390469 0.00485732083782 0.0
1.09016153429 0.00133229696428 0.0
1.01247135124 -0.0285244413041 0.0
1.02498330533 -0.056424873553 0.0
1.19933764602 -0.0012216733222 0.0
1.00185792373 -0.0145319825602 0.0
1.15475218186 0.000379722987916 0.0
1.09264122359 -0.00285833487982 0.0
1.20530425638 -0.0153681752538 0.0
1.06159441921 -0.104740430021 0.0
1.09138759687 0.00288001191387 0.0
1.145598873 -0.103117989789 0.0
1.12612747859 -0.00478069616982 0.0
1.06646795473 -0.00671015321172 0.0
1.18172065155 0.00146396742261 0.0
1.06339316154 0.00244602020661 0.0
0.727750651877 -0.0864234964745 0.0
1.17892470811 -0.000307935227313 0.0
1.18444325407 -0.0024363051664 0.0
1.2166702877 -0.00108108913978 0.0
1.07095535361 -0.024616861603 0.0
1.18022368351 0.000135330905564 0.0
1.07611680876 0.0104129136614 0.0

SCALARS scalar1 double
LOOKUP_TABLE default
1.98990771655
6.2679364888
4.28710148414
4.72361110142
8.90737771304e-05
-0.0235022775925
10.4548007572
6.82754798062
5.65325179123
5.75332699969
4.61130459802
5.54917151502
4.10016680447
4.40308408495
3.80436685361
5.50165309858
4.41927961155
4.76368847178
4.766817809
4.54330508405
4.60375579573
4.80472996386
4.67136514642
4.61049956225
4.82338982467
4.64221648181
4.62739383081
4.80005943976
4.57280396876
4.61378433993
4.76804627872
4.60715600109
4.64477429172
4.7157845281
4.65187700321
4.20580335184
6.10042226324
4.54525342742
4.25379457933
5.0020640118
4.59045610635
4.57423233729
4.21201120237
4.33578685393
4.2168177252
3.98843673838
5.32137366616
2.44649261483
0.789833472313
0.169769125488
0.00382943986077
-0.000564326990061
-0.000392180389676
-0.000959482931704
-0.00064269332931
-0.00209360259102
-0.0034585389907
-0.00252789560926
-0.000676594556254
0.000194172085986
0.000393604502979
-0.000391705605773
0.000276981842996
0.00102610041342
0.000905382389771
0.0026351225348
0.00270451746692
0.000597849533746
0.00244180813851
0.00206565552754
-0.000985581564519
-0.000579927157903
-0.000895568743993
-0.00133537304946
0.00100115976002
-0.000303180189002
0.00105671853401
0.00471500123115
0.00511645546772
0.00842694724233
0.017657844825
0.029748987122
0.0478552911616
0.0654699856299
0.0777874765338
0.0840936486937
0.0675283804532
0.0394533403742
0.00835900103581
-0.0204603691026
-0.0260164268218
-0.0273999033197
-0.0557840735309
-0.24757480314
0.0208802518317
-2.16403811718
0.248170922614
-0.297112732815
0.356383771245
0.38982193956
0.269319431034
0.0563646033357